! Sonnet Data File
! From: emgraph Version : 16.56
! From Emgraph Data: example_deembed
! Data File Written: 02/12/2021 11:05:12
!< HDATE 02/12/2021 10:26:23
!< MDATE 02/12/2021 10:26:23
# GHZ S MA R 50.00000
0.10000000 0.035553 -108.6 0.995929 -15.34 0.995929 -15.34 0.035553 -108.6
!< P1 F=0.1 Eeff=(3.31832661 -0.0798782) Z0=(50.702332 0.29717952) R=57.641524 C=0.42203439 
!< P2 F=0.1 Eeff=(3.31832661 -0.0798782) Z0=(50.702332 0.29717952) R=57.641524 C=0.42203439 
