! Sonnet Data File
! From: emgraph Version : 16.56
! From Emgraph Data: example_deembed_with_reference_plane
! Data File Written: 02/12/2021 14:26:52
!< HDATE 02/12/2021 10:20:27
!< MDATE 02/12/2021 10:20:27
# GHZ S MA R 50.00000
0.10000000 0.039577 -95.05 0.998175 -3.745 0.998175 -3.745 0.039577 -95.06
!< P1 F=0.1 Eeff=(3.33578551 -0.0799027) Z0=(48.7395922 0.29071625) R=54.0602955 C=0.44992004 
!< P2 F=0.1 Eeff=(3.3184232 -0.0798809) Z0=(50.7023898 0.29715854) R=57.6573767 C=0.42198871 
